16219737
  -OEChem-01042405142D

 41 42  0     1  0  0  0  0  0999 V2000
    3.2044   -3.2767    0.0000 P   0  0  3  0  0  0  0  0  0  0  0  0
    5.0655   -0.8121    0.0000 O   0  0  0  0  0  0  0  0  0  0  0  0
    3.7922   -2.4676    0.0000 O   0  0  0  0  0  0  0  0  0  0  0  0
    2.6166   -4.0857    0.0000 O   0  0  0  0  0  0  0  0  0  0  0  0
    2.3954   -2.6889    0.0000 O   0  5  0  0  0  0  0  0  0  0  0  0
    4.0134   -3.8644    0.0000 O   0  0  0  0  0  0  0  0  0  0  0  0
    3.2764    2.2757    0.0000 O   0  0  0  0  0  0  0  0  0  0  0  0
    5.8745    0.7757    0.0000 N   0  3  0  0  0  0  0  0  0  0  0  0
    4.1424    3.7757    0.0000 N   0  0  0  0  0  0  0  0  0  0  0  0
    6.3745   -1.7632    0.0000 C   0  0  1  0  0  0  0  0  0  0  0  0
    6.6835   -0.8121    0.0000 C   0  0  2  0  0  0  0  0  0  0  0  0
    5.3745   -1.7632    0.0000 C   0  0  1  0  0  0  0  0  0  0  0  0
    5.8745   -0.2243    0.0000 C   0  0  1  0  0  0  0  0  0  0  0  0
    6.9623   -2.5722    0.0000 C   0  0  0  0  0  0  0  0  0  0  0  0
    7.6346   -0.5031    0.0000 C   0  0  0  0  0  0  0  0  0  0  0  0
    4.7867   -2.5722    0.0000 C   0  0  0  0  0  0  0  0  0  0  0  0
    5.0085    1.2757    0.0000 C   0  0  0  0  0  0  0  0  0  0  0  0
    6.7405    1.2757    0.0000 C   0  0  0  0  0  0  0  0  0  0  0  0
    5.0085    2.2757    0.0000 C   0  0  0  0  0  0  0  0  0  0  0  0
    6.7405    2.2757    0.0000 C   0  0  0  0  0  0  0  0  0  0  0  0
    5.8745    2.7757    0.0000 C   0  0  0  0  0  0  0  0  0  0  0  0
    4.1424    2.7757    0.0000 C   0  0  0  0  0  0  0  0  0  0  0  0
    6.0930   -2.3156    0.0000 H   0  0  0  0  0  0  0  0  0  0  0  0
    7.1219   -1.2505    0.0000 H   0  0  0  0  0  0  0  0  0  0  0  0
    4.7621   -1.6662    0.0000 H   0  0  0  0  0  0  0  0  0  0  0  0
    6.4269    0.0572    0.0000 H   0  0  0  0  0  0  0  0  0  0  0  0
    6.4607   -2.9366    0.0000 H   0  0  0  0  0  0  0  0  0  0  0  0
    7.3267   -3.0738    0.0000 H   0  0  0  0  0  0  0  0  0  0  0  0
    7.4639   -2.2078    0.0000 H   0  0  0  0  0  0  0  0  0  0  0  0
    7.8262   -1.0927    0.0000 H   0  0  0  0  0  0  0  0  0  0  0  0
    8.2242   -0.3115    0.0000 H   0  0  0  0  0  0  0  0  0  0  0  0
    7.4430    0.0866    0.0000 H   0  0  0  0  0  0  0  0  0  0  0  0
    4.6158   -3.1682    0.0000 H   0  0  0  0  0  0  0  0  0  0  0  0
    5.3440   -2.8440    0.0000 H   0  0  0  0  0  0  0  0  0  0  0  0
    4.4715    0.9657    0.0000 H   0  0  0  0  0  0  0  0  0  0  0  0
    7.2774    0.9657    0.0000 H   0  0  0  0  0  0  0  0  0  0  0  0
    7.2774    2.5857    0.0000 H   0  0  0  0  0  0  0  0  0  0  0  0
    5.8745    3.3957    0.0000 H   0  0  0  0  0  0  0  0  0  0  0  0
    2.0000   -4.0209    0.0000 H   0  0  0  0  0  0  0  0  0  0  0  0
    3.6055    4.0857    0.0000 H   0  0  0  0  0  0  0  0  0  0  0  0
    4.6794    4.0857    0.0000 H   0  0  0  0  0  0  0  0  0  0  0  0
  1  3  1  0  0  0  0
  1  4  1  0  0  0  0
  1  5  1  0  0  0  0
  1  6  2  0  0  0  0
  2 12  1  0  0  0  0
  2 13  1  0  0  0  0
  3 16  1  0  0  0  0
  4 39  1  0  0  0  0
  7 22  2  0  0  0  0
 13  8  1  1  0  0  0
  8 17  1  0  0  0  0
  8 18  2  0  0  0  0
  9 22  1  0  0  0  0
  9 40  1  0  0  0  0
  9 41  1  0  0  0  0
 10 11  1  0  0  0  0
 10 12  1  0  0  0  0
 10 14  1  6  0  0  0
 10 23  1  0  0  0  0
 11 13  1  0  0  0  0
 11 15  1  6  0  0  0
 11 24  1  0  0  0  0
 12 16  1  1  0  0  0
 12 25  1  0  0  0  0
 13 26  1  0  0  0  0
 14 27  1  0  0  0  0
 14 28  1  0  0  0  0
 14 29  1  0  0  0  0
 15 30  1  0  0  0  0
 15 31  1  0  0  0  0
 15 32  1  0  0  0  0
 16 33  1  0  0  0  0
 16 34  1  0  0  0  0
 17 19  2  0  0  0  0
 17 35  1  0  0  0  0
 18 20  1  0  0  0  0
 18 36  1  0  0  0  0
 19 21  1  0  0  0  0
 19 22  1  0  0  0  0
 20 21  2  0  0  0  0
 20 37  1  0  0  0  0
 21 38  1  0  0  0  0
M  CHG  2   5  -1   8   1
M  END
> <PUBCHEM_COMPOUND_CID>
16219737

> <PUBCHEM_COMPOUND_CANONICALIZED>
1

> <PUBCHEM_CACTVS_COMPLEXITY>
454

> <PUBCHEM_CACTVS_HBOND_ACCEPTOR>
6

> <PUBCHEM_CACTVS_HBOND_DONOR>
2

> <PUBCHEM_CACTVS_ROTATABLE_BOND>
5

> <PUBCHEM_CACTVS_SUBSKEYS>
AAADceBzOAIAAAAAAAAAAAAAAAAAASAAAAAsAAAAAAAAAAABgAAAHgAQCCAADRThmgY+gJNMFRCoQjF3VICCgCA1AiAI2CE4ZNgJIPrA1ZGOIYhkgADKyca4MQIOgAAAAAAAAAAAAAAAAAAAAAAAAAAAAA==

> <PUBCHEM_IUPAC_OPENEYE_NAME>
[(2S,3S,4R,5R)-5-(3-carbamoylpyridin-1-ium-1-yl)-3,4-dimethyl-tetrahydrofuran-2-yl]methyl hydrogen phosphate

> <PUBCHEM_IUPAC_CAS_NAME>
[(2S,3S,4R,5R)-5-(3-carbamoyl-1-pyridin-1-iumyl)-3,4-dimethyl-2-oxolanyl]methyl hydrogen phosphate

> <PUBCHEM_IUPAC_NAME_MARKUP>
[(2<I>S</I>,3<I>S</I>,4<I>R</I>,5<I>R</I>)-5-(3-carbamoylpyridin-1-ium-1-yl)-3,4-dimethyloxolan-2-yl]methyl hydrogen phosphate

> <PUBCHEM_IUPAC_NAME>
[(2S,3S,4R,5R)-5-(3-carbamoylpyridin-1-ium-1-yl)-3,4-dimethyloxolan-2-yl]methyl hydrogen phosphate

> <PUBCHEM_IUPAC_SYSTEMATIC_NAME>
[(2S,3S,4R,5R)-5-(3-aminocarbonylpyridin-1-ium-1-yl)-3,4-dimethyl-oxolan-2-yl]methyl hydrogen phosphate

> <PUBCHEM_IUPAC_TRADITIONAL_NAME>
[(2S,3S,4R,5R)-5-(3-carbamoylpyridin-1-ium-1-yl)-3,4-dimethyl-tetrahydrofuran-2-yl]methyl hydrogen phosphate

> <PUBCHEM_IUPAC_INCHI>
InChI=1S/C13H19N2O6P/c1-8-9(2)13(21-11(8)7-20-22(17,18)19)15-5-3-4-10(6-15)12(14)16/h3-6,8-9,11,13H,7H2,1-2H3,(H3-,14,16,17,18,19)/t8-,9+,11+,13+/m0/s1

> <PUBCHEM_IUPAC_INCHIKEY>
YYNOOWWEYJELSF-SEMCEJNYSA-N

> <PUBCHEM_XLOGP3_AA>
-0.7

> <PUBCHEM_EXACT_MASS>
330.09807333

> <PUBCHEM_MOLECULAR_FORMULA>
C13H19N2O6P

> <PUBCHEM_MOLECULAR_WEIGHT>
330.27

> <PUBCHEM_OPENEYE_CAN_SMILES>
CC1C(C(OC1COP(=O)(O)[O-])[N+]2=CC=CC(=C2)C(=O)N)C

> <PUBCHEM_OPENEYE_ISO_SMILES>
C[C@H]1[C@H]([C@@H](O[C@@H]1COP(=O)(O)[O-])[N+]2=CC=CC(=C2)C(=O)N)C

> <PUBCHEM_CACTVS_TPSA>
126

> <PUBCHEM_MONOISOTOPIC_WEIGHT>
330.09807333

> <PUBCHEM_TOTAL_CHARGE>
0

> <PUBCHEM_HEAVY_ATOM_COUNT>
22

> <PUBCHEM_ATOM_DEF_STEREO_COUNT>
4

> <PUBCHEM_ATOM_UDEF_STEREO_COUNT>
0

> <PUBCHEM_BOND_DEF_STEREO_COUNT>
0

> <PUBCHEM_BOND_UDEF_STEREO_COUNT>
0

> <PUBCHEM_ISOTOPIC_ATOM_COUNT>
0

> <PUBCHEM_COMPONENT_COUNT>
1

> <PUBCHEM_CACTVS_TAUTO_COUNT>
-1

> <PUBCHEM_COORDINATE_TYPE>
1
5
255

> <PUBCHEM_BONDANNOTATIONS>
10  14  6
11  15  6
12  16  5
17  19  8
18  20  8
19  21  8
20  21  8
13  8  5
8  17  8
8  18  8

$$$$
